
 Version 4.6.5  of ABINIT 
 (sequential version, prepared for a P6/Linux computer) 

 Copyright (C) 1998-2005 ABINIT group . 
 ABINIT comes with ABSOLUTELY NO WARRANTY.
 It is free software, and you are welcome to redistribute it
 under certain conditions (GNU General Public License,
 see ~ABINIT/Infos/copyright or http://www.gnu.org/copyleft/gpl.txt).

 ABINIT is a project of the Universite Catholique de Louvain,
 Corning Inc. and other collaborators, see ~ABINIT/Infos/contributors.
 Please read ~ABINIT/Infos/acknowledgments.html for suggested
 acknowledgments of the ABINIT effort.
 For more information, see http://www.abinit.org .

 Starting date : Thu  6 Oct 2011.
  
- input  file    -> si_as_h_7L.in
- output file    -> si_as_h_7L.out
- root for input  files -> si_as_h_7Li
- root for output files -> si_as_h_7Lo


 DATASET    1 : space group P3 m 1 (#156); Bravais hP (primitive hexag.)
================================================================================
 Values of the parameters that define the memory need for DATASET  1.
   intxc =         0  ionmov =         0    iscf =         5     ixc =         1
  lmnmax =         9   lnmax =         9   mband =        28  mffmem =         1
P  mgfft =        72   mkmem =        15 mpssoang=         5     mpw =       872
  mqgrid =      1201   natom =         7    nfft =     18432    nkpt =        15
  nloalg =         4  nspden =         1 nspinor =         2  nsppol =         1
    nsym =         6  n1xccc =         0  ntypat =         3  occopt =         1
================================================================================
P This job should need less than                      16.767 Mbytes of memory.
  Rough estimation (10% accuracy) of disk space for files :
  WF disk file :      5.590 Mbytes ; DEN or POT disk file :      0.143 Mbytes.
================================================================================

 -outvars: echo values of preprocessed input variables --------
     acell    7.2557731980E+00  7.2557731980E+00  3.5000000000E+01 Bohr
       amu    7.49215900E+01  2.80855000E+01  1.00794000E+00
    diemac    1.20000000E+01
      ecut    5.00000000E+00 Hartree
    jdtset      1
       kpt    0.00000000E+00  0.00000000E+00  2.50000000E-01
              1.25000000E-01  0.00000000E+00  2.50000000E-01
              2.50000000E-01  0.00000000E+00  2.50000000E-01
              3.75000000E-01  0.00000000E+00  2.50000000E-01
              5.00000000E-01  0.00000000E+00  2.50000000E-01
             -3.75000000E-01  0.00000000E+00  2.50000000E-01
             -2.50000000E-01  0.00000000E+00  2.50000000E-01
             -1.25000000E-01  0.00000000E+00  2.50000000E-01
              1.25000000E-01  1.25000000E-01  2.50000000E-01
              2.50000000E-01  1.25000000E-01  2.50000000E-01
              3.75000000E-01  1.25000000E-01  2.50000000E-01
              5.00000000E-01  1.25000000E-01  2.50000000E-01
             -3.75000000E-01  1.25000000E-01  2.50000000E-01
              2.50000000E-01  2.50000000E-01  2.50000000E-01
              3.75000000E-01  2.50000000E-01  2.50000000E-01
   kptrlen    5.80461856E+01
    kptopt         1
  kptrlatt    8  0  0   0  8  0   0  0  2
P    mkmem        15
     natom         7
     nband        28
    ndtset         1
     ngfft        16      16      72
      nkpt        15
   nspinor         2
     nstep       200
      nsym         6
    ntypat         3
       occ    1.000000  1.000000  1.000000  1.000000  1.000000  1.000000
              1.000000  1.000000  1.000000  1.000000  1.000000  1.000000
              1.000000  1.000000  1.000000  1.000000  1.000000  1.000000
              1.000000  1.000000  1.000000  1.000000  1.000000  1.000000
              1.000000  1.000000  0.000000  0.000000
    prtvol        -1
     rprim    8.6602540378E-01 -5.0000000000E-01  0.0000000000E+00
              0.0000000000E+00  1.0000000000E+00  0.0000000000E+00
              0.0000000000E+00  0.0000000000E+00  1.0000000000E+00
    shiftk    0.00000000E+00  0.00000000E+00  5.00000000E-01
  so_typat         2       2       2
   spgroup       156
    symrel    1  0  0   0  1  0   0  0  1      -1  0  0   1  1  0   0  0  1
              0  1  0  -1 -1  0   0  0  1       0 -1  0  -1  0  0   0  0  1
             -1 -1  0   1  0  0   0  0  1       1  1  0   0 -1  0   0  0  1
    toldfe    1.00000000E-06 Hartree
     typat    1  2  2  2  2  2  3
       wtk      0.01563    0.04688    0.04688    0.04688    0.04688    0.04688
                0.04688    0.04688    0.09375    0.09375    0.09375    0.09375
                0.09375    0.09375    0.09375
    xangst    0.0000000000E+00  0.0000000000E+00  4.0809670237E+00
              2.2167882172E+00  0.0000000000E+00  2.7431329500E+00
              2.2167882172E+00  0.0000000000E+00  3.9187636251E-01
              1.1083941086E+00 -1.9197949109E+00 -3.9187636251E-01
              1.1083941086E+00 -1.9197949109E+00 -2.7431329500E+00
              0.0000000000E+00  0.0000000000E+00 -3.5268486326E+00
              0.0000000000E+00  0.0000000000E+00 -5.0092385742E+00
     xcart    0.0000000000E+00  0.0000000000E+00  7.7119100000E+00
              4.1891226077E+00  0.0000000000E+00  5.1837700000E+00
              4.1891226077E+00  0.0000000000E+00  7.4053900000E-01
              2.0945613038E+00 -3.6278865978E+00 -7.4053900000E-01
              2.0945613038E+00 -3.6278865978E+00 -5.1837700000E+00
              0.0000000000E+00  0.0000000000E+00 -6.6647780000E+00
              0.0000000000E+00  0.0000000000E+00 -9.4660890000E+00
      xred    0.0000000000E+00  0.0000000000E+00  2.2034028571E-01
              6.6666666645E-01  3.3333333322E-01  1.4810771429E-01
              6.6666666645E-01  3.3333333322E-01  2.1158257143E-02
              3.3333333322E-01 -3.3333333322E-01 -2.1158257143E-02
              3.3333333322E-01 -3.3333333322E-01 -1.4810771429E-01
              0.0000000000E+00  0.0000000000E+00 -1.9042222857E-01
              0.0000000000E+00  0.0000000000E+00 -2.7045968571E-01
     znucl     33.00000   14.00000    1.00000

================================================================================

 chkinp: Checking input parameters for consistency, jdtset= 1.
