  ABINIT 
  
  Give name for formatted input file: 
si.in
  Give name for formatted output file:
si.out
  Give root name for generic input files:
sii
  Give root name for generic output files:
sio
  Give root name for generic temporary files:
si
 leave_test : synchronization done...

.Version 7.0.5 of ABINIT 
.(MPI version, prepared for a x86_64_none_intel12.1 computer) 

.Copyright (C) 1998-2012 ABINIT group . 
 ABINIT comes with ABSOLUTELY NO WARRANTY.
 It is free software, and you are welcome to redistribute it
 under certain conditions (GNU General Public License,
 see ~abinit/COPYING or http://www.gnu.org/copyleft/gpl.txt).

 ABINIT is a project of the Universite Catholique de Louvain,
 Corning Inc. and other collaborators, see ~abinit/doc/developers/contributors.txt .
 Please read ~abinit/doc/users/acknowledgments.html for suggested
 acknowledgments of the ABINIT effort.
 For more information, see http://www.abinit.org .

.Starting date : Tue 19 Aug 2014.
- ( at  9h11 )
  
 
 ++++++++++++++++++++++++++++++++++++++++++++++++++++++++++++++++++++++++++++++
 
 === Build Information === 
  Version       : 7.0.5
  Build target  : x86_64_none_intel12.1
  Build date    : 20130212
 
 === Compiler Suite === 
  C compiler       : intel12.1
  CFLAGS           :  -g -O2 -vec-report0 -axSSE4.2 -ip
  C++ compiler     : gnu12.1
  CXXFLAGS         : -m64 -g -O2 -mtune=native -march=native -mfpmath=sse
  Fortran compiler : intel12.1
  FCFLAGS          :  -g -extend-source -vec-report0 -noaltparam -nofpscomp
  FC_LDFLAGS       :    -static-intel -static-libgcc
 
 === Optimizations === 
  Debug level        : basic
  Optimization level : standard
  Architecture       : _
 
 === MPI === 
  Parallel build : yes
  Parallel I/O   : yes
  Time tracing   : yes
  GPU support    : no
 
 === Connectors / Fallbacks === 
  Connectors on : yes
  Fallbacks on  : yes
  DFT flavor    : libxc-fallback+atompaw-fallback+bigdft-fallback+wannier90-fallback
  FFT flavor    : none
  LINALG flavor : netlib-fallback
  MATH flavor   : none
  TIMER flavor  : abinit
  TRIO flavor   : netcdf-fallback+etsf_io-fallback
 
 === Experimental features === 
  Bindings            : no
  Exports             : no
  GW double-precision : yes
 
 ++++++++++++++++++++++++++++++++++++++++++++++++++++++++++++++++++++++++++++++
 

 ++++++++++++++++++++++++++++++++++++++++++++++++++++++++++++++++++++++++++++++
 Default optimizations:
   -O2 -xHost


 ++++++++++++++++++++++++++++++++++++++++++++++++++++++++++++++++++++++++++++++


 ++++++++++++++++++++++++++++++++++++++++++++++++++++++++++++++++++++++++++++++
 CPP options activated during the build:

                  CC_INTEL                   CXX_GNU                  FC_INTEL

          HAVE_DFT_ATOMPAW           HAVE_DFT_BIGDFT            HAVE_DFT_LIBXC

        HAVE_DFT_WANNIER90 HAVE_FC_ALLOCATABLE_DT...           HAVE_FC_CPUTIME

              HAVE_FC_EXIT             HAVE_FC_GAMMA     HAVE_FC_ISO_C_BINDING

              HAVE_FC_NULL         HAVE_FC_STREAM_IO                  HAVE_MPI

                 HAVE_MPI2               HAVE_MPI_IO            HAVE_MPI_TRACE

 HAVE_MPI_TYPE_CREATE_S...                HAVE_NUMPY                HAVE_TIMER

         HAVE_TIMER_ABINIT            HAVE_TIMER_MPI         HAVE_TIMER_SERIAL

         HAVE_TRIO_ETSF_IO          HAVE_TRIO_NETCDF
 ++++++++++++++++++++++++++++++++++++++++++++++++++++++++++++++++++++++++++++++

- input  file    -> si.in
- output file    -> si.out
- root for input  files -> sii
- root for output files -> sio

-instrng :    48 lines of input have been read from file si.in


 iofn2 : Please give name of formatted atomic psp file
 iofn2 : for atom type   1 , psp file is /home/bms/tiniba/ver2.0/psp/14si.4.hgh
  read the values zionpsp=  4.0 , pspcod=   3 , lmax=   1

 inpspheads : deduce mpsang  =   2, n1xccc  =   0.
 leave_test : synchronization done...

 invars1m : enter jdtset=     1
 invars1 : treat image number     1

 symlatt : the Bravais lattice is cF (face-centered cubic)

 inread : ERROR -
  Attempted to read ndig=    11 floating point digits,
   from string(1:ndig) CHKSYMBREAK, to initialize a floating variable.

 inarray : 
  An error occurred reading data for keyword " XRED",
    looking for        6 array elements.

 Subroutine Unknown:0:ERROR
   There is a problem with the input file : maybe  
  a disagreement between the declared dimension of the array,
  and the number of data actually provided. 
  Action : correct your input file !

 leave_new : decision taken to exit ...
 DATA TYPE INFORMATION: 
 REAL:      Data type name: REAL(DP) 
            Kind value:      8
            Precision:      15
            Smallest nonnegligible quantity relative to 1:  0.22204460E-15
            Smallest positive number:                       0.22250739-307
            Largest representable number:                   0.17976931+309
 INTEGER:   Data type name: INTEGER(default) 
            Kind value: 4
            Bit size:   32
            Largest representable number: 2147483647
 LOGICAL:   Data type name: LOGICAL 
            Kind value: 4
 CHARACTER: Data type name: CHARACTER             Kind value: 1
  ==== Using MPI-2 specifications ==== 
  MPI-IO support is ON
  xmpi_tag_ub ................   2147483647
  xmpi_bsize_ch ..............            1
  xmpi_bsize_int .............            4
  xmpi_bsize_sp ..............            4
  xmpi_bsize_dp ..............            8
  xmpi_bsize_spc .............            8
  xmpi_bsize_dpc .............           16
  xmpio_bsize_frm ............            4
  xmpi_address_kind ..........            8
  xmpi_offset_kind ...........            8
  MPI_WTICK ..................   1.000000000000000E-006
 
 ++++++++++++++++++++++++++++++++++++++++++++++++++++++++++++++++++++++++++++++
 
 === Build Information === 
  Version       : 7.0.5
  Build target  : x86_64_none_intel12.1
  Build date    : 20130212
 
 === Compiler Suite === 
  C compiler       : intel12.1
  CFLAGS           :  -g -O2 -vec-report0 -axSSE4.2 -ip
  C++ compiler     : gnu12.1
  CXXFLAGS         : -m64 -g -O2 -mtune=native -march=native -mfpmath=sse
  Fortran compiler : intel12.1
  FCFLAGS          :  -g -extend-source -vec-report0 -noaltparam -nofpscomp
  FC_LDFLAGS       :    -static-intel -static-libgcc
 
 === Optimizations === 
  Debug level        : basic
  Optimization level : standard
  Architecture       : _
 
 === MPI === 
  Parallel build : yes
  Parallel I/O   : yes
  Time tracing   : yes
  GPU support    : no
 
 === Connectors / Fallbacks === 
  Connectors on : yes
  Fallbacks on  : yes
  DFT flavor    : libxc-fallback+atompaw-fallback+bigdft-fallback+wannier90-fallback
  FFT flavor    : none
  LINALG flavor : netlib-fallback
  MATH flavor   : none
  TIMER flavor  : abinit
  TRIO flavor   : netcdf-fallback+etsf_io-fallback
 
 === Experimental features === 
  Bindings            : no
  Exports             : no
  GW double-precision : yes
 
 ++++++++++++++++++++++++++++++++++++++++++++++++++++++++++++++++++++++++++++++
 
